[{"shortcut":"H","name":"wodór","atomic_number":1,"atom_mass":"1,00784","physical_state":"metal","chemical_character":"ciało stałe","density":"unknown","melt_temp":"unknown","boiling_temp":"unknown","discover_year":"unknown","discover":"unknown"},{"shortcut":"Hl","name":"Hel","atomic_number":2,"atom_mass":"4,002602","physical_state":"metal","chemical_character":"ciało stałe","density":"unknown","melt_temp":"unknown","boiling_temp":"unknown","discover_year":"unknown","discover":"unknown"},{"shortcut":"Li","name":"lit","atomic_number":3,"atom_mass":"6.941","physical_state":"metal","chemical_character":"ciało stałe","density":"0,53 g/cm³","melt_temp":"180.5","boiling_temp":"1317","discover_year":"1817","discover":"Arfvedson"},{"shortcut":"Be","name":"beryl","atomic_number":4,"atom_mass":"9.012182","physical_state":"metal","chemical_character":"ciało stałe","density":"1,85 g/cm³","melt_temp":"1278","boiling_temp":"2970","discover_year":"1797","discover":"Vauquelin"},{"shortcut":"B","name":"bor","atomic_number":5,"atom_mass":"10.811","physical_state":"metal","chemical_character":"ciało stałe","density":"2,46 g/cm³","melt_temp":"2300","boiling_temp":"2550","discover_year":"1808","discover":"Davy i Gay-Lussac"},{"shortcut":"C","name":"węgiel","atomic_number":6,"atom_mass":"12.011","physical_state":"metal","chemical_character":"ciało stałe","density":"3,51 g/cm³","melt_temp":"3550","boiling_temp":"4827","discover_year":"prehistoria","discover":"nieznany"},{"shortcut":"Na","name":"sód","atomic_number":11,"atom_mass":"22.989768","physical_state":"metal","chemical_character":"ciało stałe","density":"970 mg/cm³","melt_temp":"97.8","boiling_temp":"892","discover_year":"1807","discover":"Davy"},{"shortcut":"Mg","name":"magnez","atomic_number":12,"atom_mass":"24.305","physical_state":"metal","chemical_character":"ciało stałe","density":"1,74 g/cm³","melt_temp":"648.8","boiling_temp":"1107","discover_year":"1755","discover":"Black"},{"shortcut":"Al","name":"glin","atomic_number":13,"atom_mass":"26.981539","physical_state":"metal","chemical_character":"ciało stałe","density":"2,70 g/cm³","melt_temp":"660.5","boiling_temp":"2467","discover_year":"1825","discover":"Oersted"},{"shortcut":"Si","name":"krzem","atomic_number":14,"atom_mass":"28.0855","physical_state":"metal","chemical_character":"ciało stałe","density":"2,33 g/cm³","melt_temp":"1410","boiling_temp":"2355","discover_year":"1824","discover":"Berzelius"},{"shortcut":"P","name":"fosfor","atomic_number":15,"atom_mass":"30.973762","physical_state":"metal","chemical_character":"ciało stałe","density":"1,82 g/cm³","melt_temp":"44 (P4)","boiling_temp":"280 (P4)","discover_year":"1669","discover":"Brand"},{"shortcut":"S","name":"siarka","atomic_number":16,"atom_mass":"32.066","physical_state":"metal","chemical_character":"ciało stałe","density":"2,06 g/cm³","melt_temp":"113","boiling_temp":"444.7","discover_year":"prehistoria","discover":"nieznany"},{"shortcut":"K","name":"potas","atomic_number":19,"atom_mass":"39.0983","physical_state":"metal","chemical_character":"ciało stałe","density":"0,86 g/cm³","melt_temp":"63.7","boiling_temp":"774","discover_year":"1807","discover":"Davy"},{"shortcut":"Ca","name":"wapń","atomic_number":20,"atom_mass":"40.078","physical_state":"metal","chemical_character":"ciało stałe","density":"1,54 g/cm³","melt_temp":"839","boiling_temp":"1487","discover_year":"1808","discover":"Davy"},{"shortcut":"Sc","name":"skand","atomic_number":21,"atom_mass":"44.95591","physical_state":"metal","chemical_character":"ciało stałe","density":"2,99 g/cm³","melt_temp":"1539","boiling_temp":"2832","discover_year":"1879","discover":"Nilson"},{"shortcut":"Ti","name":"tytan","atomic_number":22,"atom_mass":"47.88","physical_state":"metal","chemical_character":"ciało stałe","density":"4,51 g/cm³","melt_temp":"1660","boiling_temp":"3260","discover_year":"1791","discover":"Gregor i Klaproth"},{"shortcut":"V","name":"wanad","atomic_number":23,"atom_mass":"50.9415","physical_state":"metal","chemical_character":"ciało stałe","density":"6,09 g/cm³","melt_temp":"1890","boiling_temp":"3380","discover_year":"1801","discover":"del Rio"},{"shortcut":"Cr","name":"chrom","atomic_number":24,"atom_mass":"51.9961","physical_state":"metal","chemical_character":"ciało stałe","density":"7,14 g/cm³","melt_temp":"1857","boiling_temp":"2482","discover_year":"1797","discover":"Vauquelin"},{"shortcut":"Mn","name":"mangan","atomic_number":25,"atom_mass":"54.93805","physical_state":"metal","chemical_character":"ciało stałe","density":"7,44 g/cm³","melt_temp":"1244","boiling_temp":"2097","discover_year":"1774","discover":"Gahn"},{"shortcut":"Fe","name":"żelazo","atomic_number":26,"atom_mass":"55.847","physical_state":"metal","chemical_character":"ciało stałe","density":"7,87 g/cm³","melt_temp":"1535","boiling_temp":"2750","discover_year":"prehistoria","discover":"nieznany"},{"shortcut":"Co","name":"kobalt","atomic_number":27,"atom_mass":"58.9332","physical_state":"metal","chemical_character":"ciało stałe","density":"8,89 g/cm³","melt_temp":"1495","boiling_temp":"2870","discover_year":"1735","discover":"Brand"},{"shortcut":"Ni","name":"nikiel","atomic_number":28,"atom_mass":"58.69","physical_state":"metal","chemical_character":"ciało stałe","density":"8,91 g/cm³","melt_temp":"1453","boiling_temp":"2732","discover_year":"1751","discover":"Cronstedt"},{"shortcut":"Cu","name":"miedź","atomic_number":29,"atom_mass":"63.546","physical_state":"metal","chemical_character":"ciało stałe","density":"8,92 g/cm³","melt_temp":"1083.5","boiling_temp":"2595","discover_year":"prehistoria","discover":"nieznany"},{"shortcut":"Zn","name":"cynk","atomic_number":30,"atom_mass":"65.39","physical_state":"metal","chemical_character":"ciało stałe","density":"7,14 g/cm³","melt_temp":"419.6","boiling_temp":"907","discover_year":"prehistoria","discover":"nieznany"},{"shortcut":"Ga","name":"gal","atomic_number":31,"atom_mass":"69.723","physical_state":"metal","chemical_character":"ciało stałe","density":"5,91 g/cm³","melt_temp":"29.8","boiling_temp":"2403","discover_year":"1875","discover":"Lecoq de Boisbaudran"},{"shortcut":"Ge","name":"german","atomic_number":32,"atom_mass":"72.61","physical_state":"metal","chemical_character":"ciało stałe","density":"5,32 g/cm³","melt_temp":"937.4","boiling_temp":"2830","discover_year":"1886","discover":"Winkler"},{"shortcut":"As","name":"arsen","atomic_number":33,"atom_mass":"74.92159","physical_state":"metal","chemical_character":"ciało stałe","density":"5,72 g/cm³","melt_temp":"613","boiling_temp":"613[b]","discover_year":"ca. 1250","discover":"Albert Wielki"},{"shortcut":"Se","name":"selen","atomic_number":34,"atom_mass":"78.96","physical_state":"metal","chemical_character":"ciało stałe","density":"4,82 g/cm³","melt_temp":"217","boiling_temp":"685","discover_year":"1817","discover":"Berzelius"},{"shortcut":"Br","name":"brom","atomic_number":35,"atom_mass":"79.904","physical_state":"metal","chemical_character":"ciało stałe","density":"3,14 g/cm³","melt_temp":"-7.3","boiling_temp":"58.8","discover_year":"1826","discover":"Balard"},{"shortcut":"Rb","name":"rubid","atomic_number":37,"atom_mass":"85.4678","physical_state":"metal","chemical_character":"ciało stałe","density":"1,53 g/cm³","melt_temp":"39","boiling_temp":"688","discover_year":"1861","discover":"Bunsen i Kirchhoff"},{"shortcut":"Sr","name":"stront","atomic_number":38,"atom_mass":"87.62","physical_state":"metal","chemical_character":"ciało stałe","density":"2,63 g/cm³","melt_temp":"769","boiling_temp":"1384","discover_year":"1790","discover":"Crawford"},{"shortcut":"Y","name":"itr","atomic_number":39,"atom_mass":"88.90585","physical_state":"metal","chemical_character":"ciało stałe","density":"4,47 g/cm³","melt_temp":"1523","boiling_temp":"3337","discover_year":"1794","discover":"Gadolin"},{"shortcut":"Zr","name":"cyrkon","atomic_number":40,"atom_mass":"91.224","physical_state":"metal","chemical_character":"ciało stałe","density":"6,51 g/cm³","melt_temp":"1852","boiling_temp":"4377","discover_year":"1789","discover":"Klaproth"},{"shortcut":"Nb","name":"niob","atomic_number":41,"atom_mass":"92.90638","physical_state":"metal","chemical_character":"ciało stałe","density":"8,58 g/cm³","melt_temp":"2468","boiling_temp":"4927","discover_year":"1801","discover":"Hatchett"},{"shortcut":"Mo","name":"molibden","atomic_number":42,"atom_mass":"95.94","physical_state":"metal","chemical_character":"ciało stałe","density":"10,28 g/cm³","melt_temp":"2617","boiling_temp":"5560","discover_year":"1778","discover":"Scheele"},{"shortcut":"Tc","name":"technet","atomic_number":43,"atom_mass":"98.9063","physical_state":"metal","chemical_character":"ciało stałe","density":"11,49 g/cm³","melt_temp":"2172","boiling_temp":"5030","discover_year":"1937","discover":"Perrier i Segrè"},{"shortcut":"Ru","name":"ruten","atomic_number":44,"atom_mass":"101.07","physical_state":"metal","chemical_character":"ciało stałe","density":"12,45 g/cm³","melt_temp":"2310","boiling_temp":"3900","discover_year":"1844","discover":"Claus"},{"shortcut":"Rh","name":"rod","atomic_number":45,"atom_mass":"102.9055","physical_state":"metal","chemical_character":"ciało stałe","density":"12,41 g/cm³","melt_temp":"1966","boiling_temp":"3727","discover_year":"1803","discover":"Wollaston"},{"shortcut":"Pd","name":"pallad","atomic_number":46,"atom_mass":"106.42","physical_state":"metal","chemical_character":"ciało stałe","density":"12,02 g/cm³","melt_temp":"1552","boiling_temp":"3140","discover_year":"1803","discover":"Wollaston"},{"shortcut":"Ag","name":"srebro","atomic_number":47,"atom_mass":"107.8682","physical_state":"metal","chemical_character":"ciało stałe","density":"10,49 g/cm³","melt_temp":"961.9","boiling_temp":"2212","discover_year":"prehistoria","discover":"nieznany"},{"shortcut":"Cd","name":"kadm","atomic_number":48,"atom_mass":"112.411","physical_state":"metal","chemical_character":"ciało stałe","density":"8,64 g/cm³","melt_temp":"321","boiling_temp":"765","discover_year":"1817","discover":"Strohmeyer"},{"shortcut":"In","name":"ind","atomic_number":49,"atom_mass":"114.82","physical_state":"metal","chemical_character":"ciało stałe","density":"7,31 g/cm³","melt_temp":"156.2","boiling_temp":"2080","discover_year":"1863","discover":"Reich i Richter"},{"shortcut":"Sn","name":"cyna","atomic_number":50,"atom_mass":"118.71","physical_state":"metal","chemical_character":"ciało stałe","density":"7,29 g/cm³","melt_temp":"232","boiling_temp":"2270","discover_year":"prehistoria","discover":"nieznany"},{"shortcut":"Sb","name":"antymon","atomic_number":51,"atom_mass":"121.75","physical_state":"metal","chemical_character":"ciało stałe","density":"6,69 g/cm³","melt_temp":"630.7","boiling_temp":"1750","discover_year":"prehistoria","discover":"nieznany"},{"shortcut":"Te","name":"tellur","atomic_number":52,"atom_mass":"127.6","physical_state":"metal","chemical_character":"ciało stałe","density":"6,25 g/cm³","melt_temp":"449.6","boiling_temp":"990","discover_year":"1782","discover":"von Reichenstein"},{"shortcut":"I","name":"jod","atomic_number":53,"atom_mass":"126.90447","physical_state":"metal","chemical_character":"ciało stałe","density":"4,94 g/cm³","melt_temp":"113.5","boiling_temp":"184.4","discover_year":"1811","discover":"Courtois"},{"shortcut":"Cs","name":"cez","atomic_number":55,"atom_mass":"132.90543","physical_state":"metal","chemical_character":"ciało stałe","density":"1,90 g/cm³","melt_temp":"28.4","boiling_temp":"690","discover_year":"1860","discover":"Bunsen i Kirchhoff"},{"shortcut":"Ba","name":"bar","atomic_number":56,"atom_mass":"137.327","physical_state":"metal","chemical_character":"ciało stałe","density":"3,65 g/cm³","melt_temp":"725","boiling_temp":"1640","discover_year":"1808","discover":"Davy"},{"shortcut":"La","name":"lantan","atomic_number":57,"atom_mass":"138.9055","physical_state":"metal","chemical_character":"ciało stałe","density":"6,16 g/cm³","melt_temp":"920","boiling_temp":"3454","discover_year":"1839","discover":"Mosander"},{"shortcut":"Ce","name":"cer","atomic_number":58,"atom_mass":"140.115","physical_state":"metal","chemical_character":"ciało stałe","density":"6,77 g/cm³","melt_temp":"798","boiling_temp":"3257","discover_year":"1803","discover":"von Hisinger i Berzelius"},{"shortcut":"Pr","name":"prazeodym","atomic_number":59,"atom_mass":"140.90765","physical_state":"metal","chemical_character":"ciało stałe","density":"6,48 g/cm³","melt_temp":"931","boiling_temp":"3212","discover_year":"1895","discover":"von Welsbach"},{"shortcut":"Nd","name":"neodym","atomic_number":60,"atom_mass":"144.24","physical_state":"metal","chemical_character":"ciało stałe","density":"7,00 g/cm³","melt_temp":"1010","boiling_temp":"3127","discover_year":"1895","discover":"von Welsbach"},{"shortcut":"Pm","name":"promet","atomic_number":61,"atom_mass":"146.9151","physical_state":"metal","chemical_character":"ciało stałe","density":"7,22 g/cm³","melt_temp":"1080","boiling_temp":"2730","discover_year":"1945","discover":"Marinsky i Glendenin"},{"shortcut":"Sm","name":"samar","atomic_number":62,"atom_mass":"150.36","physical_state":"metal","chemical_character":"ciało stałe","density":"7,54 g/cm³","melt_temp":"1072","boiling_temp":"1778","discover_year":"1879","discover":"Lecoq de Boisbaudran"},{"shortcut":"Eu","name":"europ","atomic_number":63,"atom_mass":"151.965","physical_state":"metal","chemical_character":"ciało stałe","density":"5,25 g/cm³","melt_temp":"822","boiling_temp":"1597","discover_year":"1901","discover":"Demaçay"},{"shortcut":"Gd","name":"gadolin","atomic_number":64,"atom_mass":"157.25","physical_state":"metal","chemical_character":"ciało stałe","density":"7,89 g/cm³","melt_temp":"1311","boiling_temp":"3233","discover_year":"1880","discover":"de Marignac"},{"shortcut":"Tb","name":"terb","atomic_number":65,"atom_mass":"158.92534","physical_state":"metal","chemical_character":"ciało stałe","density":"8,25 g/cm³","melt_temp":"1360","boiling_temp":"3041","discover_year":"1843","discover":"Mosander"},{"shortcut":"Dy","name":"dysproz","atomic_number":66,"atom_mass":"162.5","physical_state":"metal","chemical_character":"ciało stałe","density":"8,56 g/cm³","melt_temp":"1409","boiling_temp":"2335","discover_year":"1886","discover":"Lecoq de Boisbaudran"},{"shortcut":"Ho","name":"holm","atomic_number":67,"atom_mass":"164.93032","physical_state":"metal","chemical_character":"ciało stałe","density":"8,78 g/cm³","melt_temp":"1470","boiling_temp":"2720","discover_year":"1878","discover":"Soret"},{"shortcut":"Er","name":"erb","atomic_number":68,"atom_mass":"167.26","physical_state":"metal","chemical_character":"ciało stałe","density":"9,05 g/cm³","melt_temp":"1522","boiling_temp":"2510","discover_year":"1842","discover":"Mosander"},{"shortcut":"Tm","name":"tul","atomic_number":69,"atom_mass":"168.93421","physical_state":"metal","chemical_character":"ciało stałe","density":"9,32 g/cm³","melt_temp":"1545","boiling_temp":"1727","discover_year":"1879","discover":"Cleve"},{"shortcut":"Yb","name":"iterb","atomic_number":70,"atom_mass":"173.04","physical_state":"metal","chemical_character":"ciało stałe","density":"6,97 g/cm³","melt_temp":"824","boiling_temp":"1193","discover_year":"1878","discover":"de Marignac"},{"shortcut":"Lu","name":"lutet","atomic_number":71,"atom_mass":"174.967","physical_state":"metal","chemical_character":"ciało stałe","density":"9,84 g/cm³","melt_temp":"1656","boiling_temp":"3315","discover_year":"1907","discover":"Urbain"},{"shortcut":"Hf","name":"hafn","atomic_number":72,"atom_mass":"178.49","physical_state":"metal","chemical_character":"ciało stałe","density":"13,31 g/cm³","melt_temp":"2150","boiling_temp":"5400","discover_year":"1923","discover":"Coster i vón Hevesy"},{"shortcut":"Ta","name":"tantal","atomic_number":73,"atom_mass":"180.9479","physical_state":"metal","chemical_character":"ciało stałe","density":"16,68 g/cm³","melt_temp":"2996","boiling_temp":"5425","discover_year":"1802","discover":"Ekeberg"},{"shortcut":"W","name":"wolfram","atomic_number":74,"atom_mass":"183.85","physical_state":"metal","chemical_character":"ciało stałe","density":"19,26 g/cm³","melt_temp":"3407","boiling_temp":"5927","discover_year":"1783","discover":"Bracia de Elhuyar"},{"shortcut":"Re","name":"ren","atomic_number":75,"atom_mass":"186.207","physical_state":"metal","chemical_character":"ciało stałe","density":"21,03 g/cm³","melt_temp":"3180","boiling_temp":"5627","discover_year":"1925","discover":"Noddack, Tacke i Berg"},{"shortcut":"Os","name":"osm","atomic_number":76,"atom_mass":"190.2","physical_state":"metal","chemical_character":"ciało stałe","density":"22,61 g/cm³","melt_temp":"3045","boiling_temp":"5027","discover_year":"1803","discover":"Tenant"},{"shortcut":"Ir","name":"iryd","atomic_number":77,"atom_mass":"192.22","physical_state":"metal","chemical_character":"ciało stałe","density":"22,65 g/cm³","melt_temp":"2410","boiling_temp":"4130","discover_year":"1803","discover":"Tenanti inni"},{"shortcut":"Pt","name":"platyna","atomic_number":78,"atom_mass":"195.08","physical_state":"metal","chemical_character":"ciało stałe","density":"21,45 g/cm³","melt_temp":"1772","boiling_temp":"3827","discover_year":"1557","discover":"Scaliger"},{"shortcut":"Au","name":"złoto","atomic_number":79,"atom_mass":"196.96654","physical_state":"metal","chemical_character":"ciało stałe","density":"19,32 g/cm³","melt_temp":"1064.4","boiling_temp":"2940","discover_year":"prehistoria","discover":"nieznany"},{"shortcut":"Hg","name":"rtęć","atomic_number":80,"atom_mass":"200.59","physical_state":"metal","chemical_character":"ciało stałe","density":"13,55 g/cm³","melt_temp":"-38.9","boiling_temp":"356.6","discover_year":"prehistoria","discover":"nieznany"},{"shortcut":"Tl","name":"tal","atomic_number":81,"atom_mass":"204.3833","physical_state":"metal","chemical_character":"ciało stałe","density":"11,85 g/cm³","melt_temp":"303.6","boiling_temp":"1457","discover_year":"1861","discover":"Crookes"},{"shortcut":"Pb","name":"ołów","atomic_number":82,"atom_mass":"207.2","physical_state":"metal","chemical_character":"ciało stałe","density":"11,34 g/cm³","melt_temp":"327.5","boiling_temp":"1740","discover_year":"prehistoria","discover":"nieznany"},{"shortcut":"Bi","name":"bizmut","atomic_number":83,"atom_mass":"208.98037","physical_state":"metal","chemical_character":"ciało stałe","density":"9,80 g/cm³","melt_temp":"271.4","boiling_temp":"1560","discover_year":"1540","discover":"Agricola"},{"shortcut":"Po","name":"polon","atomic_number":84,"atom_mass":"208.9824","physical_state":"metal","chemical_character":"ciało stałe","density":"9,20 g/cm³","melt_temp":"254","boiling_temp":"962","discover_year":"1898","discover":"Maria i Piotr Curie"},{"shortcut":"At","name":"astat","atomic_number":85,"atom_mass":"209.9871","physical_state":"metal","chemical_character":"ciało stałe","density":"unknown","melt_temp":"302","boiling_temp":"337","discover_year":"1940","discover":"Corson i MacKenzie"},{"shortcut":"Fr","name":"frans","atomic_number":87,"atom_mass":"223.0197","physical_state":"metal","chemical_character":"ciało stałe","density":"unknown","melt_temp":"27","boiling_temp":"677","discover_year":"1939","discover":"Perey"},{"shortcut":"Ra","name":"rad","atomic_number":88,"atom_mass":"226.0254","physical_state":"metal","chemical_character":"ciało stałe","density":"5,50 g/cm³","melt_temp":"700","boiling_temp":"1140","discover_year":"1898","discover":"Maria i Piotr Curie"},{"shortcut":"Ac","name":"aktyn","atomic_number":89,"atom_mass":"227.0278","physical_state":"metal","chemical_character":"ciało stałe","density":"10,07 g/cm³","melt_temp":"1047","boiling_temp":"3197","discover_year":"1899","discover":"Debierne"},{"shortcut":"Th","name":"tor","atomic_number":90,"atom_mass":"232.0381","physical_state":"metal","chemical_character":"ciało stałe","density":"11,72 g/cm³","melt_temp":"1750","boiling_temp":"4787","discover_year":"1829","discover":"Berzelius"},{"shortcut":"Pa","name":"protaktyn","atomic_number":91,"atom_mass":"231.0359","physical_state":"metal","chemical_character":"ciało stałe","density":"15,37 g/cm³","melt_temp":"1554","boiling_temp":"4030","discover_year":"1917","discover":"Soddy, Cranston i Hahn"},{"shortcut":"U","name":"uran","atomic_number":92,"atom_mass":"238.0289","physical_state":"metal","chemical_character":"ciało stałe","density":"18,97 g/cm³","melt_temp":"1132.4","boiling_temp":"3818","discover_year":"1789","discover":"Klaproth"},{"shortcut":"Np","name":"neptun","atomic_number":93,"atom_mass":"237.0482","physical_state":"metal","chemical_character":"ciało stałe","density":"20,48 g/cm³","melt_temp":"640","boiling_temp":"3902","discover_year":"1940","discover":"McMillan i Abelson"},{"shortcut":"Pu","name":"pluton","atomic_number":94,"atom_mass":"244.0642","physical_state":"metal","chemical_character":"ciało stałe","density":"19,74 g/cm³","melt_temp":"641","boiling_temp":"3327","discover_year":"1940","discover":"Seaborg"},{"shortcut":"Am","name":"ameryk","atomic_number":95,"atom_mass":"243.0614","physical_state":"metal","chemical_character":"ciało stałe","density":"13,67 g/cm³","melt_temp":"994","boiling_temp":"2607","discover_year":"1944","discover":"Seaborg"},{"shortcut":"Cm","name":"kiur","atomic_number":96,"atom_mass":"247.0703","physical_state":"metal","chemical_character":"ciało stałe","density":"13,51 g/cm³","melt_temp":"1340","boiling_temp":"unknown","discover_year":"1944","discover":"Seaborg"},{"shortcut":"Bk","name":"berkel","atomic_number":97,"atom_mass":"247.0703","physical_state":"metal","chemical_character":"ciało stałe","density":"13,25 g/cm³","melt_temp":"986","boiling_temp":"unknown","discover_year":"1949","discover":"Seaborg"},{"shortcut":"Cf","name":"kaliforn","atomic_number":98,"atom_mass":"251.0796","physical_state":"metal","chemical_character":"ciało stałe","density":"15,1 g/cm³","melt_temp":"900","boiling_temp":"unknown","discover_year":"1950","discover":"Seaborg"},{"shortcut":"Es","name":"einstein","atomic_number":99,"atom_mass":"252.0829","physical_state":"metal","chemical_character":"ciało stałe","density":"unknown","melt_temp":"860","boiling_temp":"unknown","discover_year":"1952","discover":"Seaborg"},{"shortcut":"Fm","name":"ferm","atomic_number":100,"atom_mass":"257.0951","physical_state":"metal","chemical_character":"ciało stałe","density":"unknown","melt_temp":"unknown","boiling_temp":"unknown","discover_year":"1952","discover":"Seaborg"},{"shortcut":"Md","name":"mendelew","atomic_number":101,"atom_mass":"258.0986","physical_state":"metal","chemical_character":"ciało stałe","density":"unknown","melt_temp":"unknown","boiling_temp":"unknown","discover_year":"1955","discover":"Seaborg"},{"shortcut":"No","name":"nobel","atomic_number":102,"atom_mass":"259.1009","physical_state":"metal","chemical_character":"ciało stałe","density":"unknown","melt_temp":"unknown","boiling_temp":"unknown","discover_year":"1958","discover":"Seaborg"},{"shortcut":"Lr","name":"lorens","atomic_number":103,"atom_mass":"260.1053","physical_state":"metal","chemical_character":"ciało stałe","density":"unknown","melt_temp":"unknown","boiling_temp":"unknown","discover_year":"1961","discover":"Ghiorso"},{"shortcut":"Rf","name":"rutherford","atomic_number":104,"atom_mass":"261.1087","physical_state":"metal","chemical_character":"ciało stałe","density":"unknown","melt_temp":"unknown","boiling_temp":"unknown","discover_year":"1964/69","discover":"Flerow lub Ghiorso"},{"shortcut":"Db","name":"dubn","atomic_number":105,"atom_mass":"262.1138","physical_state":"metal","chemical_character":"ciało stałe","density":"unknown","melt_temp":"unknown","boiling_temp":"unknown","discover_year":"1967/70","discover":"Flerow lub Ghiorso"},{"shortcut":"Sg","name":"seaborg","atomic_number":106,"atom_mass":"263.1182","physical_state":"metal","chemical_character":"ciało stałe","density":"unknown","melt_temp":"unknown","boiling_temp":"unknown","discover_year":"1974","discover":"Oganessian"},{"shortcut":"Bh","name":"bohr","atomic_number":107,"atom_mass":"262.1229","physical_state":"metal","chemical_character":"ciało stałe","density":"unknown","melt_temp":"unknown","boiling_temp":"unknown","discover_year":"1976","discover":"Oganessian"},{"shortcut":"Hs","name":"has","atomic_number":108,"atom_mass":"265","physical_state":"metal","chemical_character":"ciało stałe","density":"unknown","melt_temp":"unknown","boiling_temp":"unknown","discover_year":"1984","discover":"Instytut Badań Ciężkich Jonów w Darmstadt (GSI), Niemcy"},{"shortcut":"Mt","name":"meitner","atomic_number":109,"atom_mass":"266","physical_state":"metal","chemical_character":"ciało stałe","density":"unknown","melt_temp":"unknown","boiling_temp":"unknown","discover_year":"1982","discover":"Instytut Badań Ciężkich Jonów w Darmstadt"},{"shortcut":"Ds","name":"darmsztadt","atomic_number":110,"atom_mass":"269","physical_state":"metal","chemical_character":"ciało stałe","density":"unknown","melt_temp":"unknown","boiling_temp":"unknown","discover_year":"1994","discover":"Instytut Badań Ciężkich Jonów"},{"shortcut":"Rg","name":"roentgen","atomic_number":111,"atom_mass":"272","physical_state":"metal","chemical_character":"ciało stałe","density":"unknown","melt_temp":"unknown","boiling_temp":"unknown","discover_year":"1994","discover":"Instytut Badań Ciężkich Jonów"},{"shortcut":"Cn","name":"kopernik","atomic_number":112,"atom_mass":"285","physical_state":"metal","chemical_character":"ciało stałe","density":"unknown","melt_temp":"unknown","boiling_temp":"unknown","discover_year":"1996","discover":"Instytut Badań Ciężkich Jonów"},{"shortcut":"Nh","name":"nihon","atomic_number":113,"atom_mass":"284","physical_state":"metal","chemical_character":"ciało stałe","density":"unknown","melt_temp":"unknown","boiling_temp":"unknown","discover_year":"2003","discover":"Riken[1]"},{"shortcut":"Fl","name":"flerow","atomic_number":114,"atom_mass":"289","physical_state":"metal","chemical_character":"ciało stałe","density":"unknown","melt_temp":"unknown","boiling_temp":"unknown","discover_year":"1999","discover":"Zjednoczony Instytut Badań Jądrowych, Dubna, Rosja"},{"shortcut":"Mc","name":"moskow","atomic_number":115,"atom_mass":"288","physical_state":"metal","chemical_character":"ciało stałe","density":"unknown","melt_temp":"unknown","boiling_temp":"unknown","discover_year":"2003","discover":"Zjednoczony Instytut Badań Jądrowych"},{"shortcut":"Lv","name":"liwermor","atomic_number":116,"atom_mass":"292","physical_state":"metal","chemical_character":"ciało stałe","density":"unknown","melt_temp":"unknown","boiling_temp":"unknown","discover_year":"2000","discover":"Zjednoczony Instytut Badań Jądrowych"},{"shortcut":"Ts","name":"tenes","atomic_number":117,"atom_mass":"294","physical_state":"metal","chemical_character":"ciało stałe","density":"unknown","melt_temp":"unknown","boiling_temp":"unknown","discover_year":"2009","discover":"Zjednoczony Instytut Badań Jądrowych"},{"shortcut":"Og","name":"oganeson","atomic_number":118,"atom_mass":"294","physical_state":"metal","chemical_character":"ciało stałe","density":"unknown","melt_temp":"unknown","boiling_temp":"unknown","discover_year":"2002","discover":"Zjednoczony Instytut Badań Jądrowych"}]